Job submitted to:
compute-0-2.local
 Entering Gaussian System, Link 0=/usr/software/gaussian/g09.revC01/g09
 Initial command:
 /usr/software/gaussian/g09.revC01/l1.exe /scr/baerz/propane/Gau-2965.inp -scrdir=/scr/baerz/propane/
 Entering Link 1 = /usr/software/gaussian/g09.revC01/l1.exe PID=      2966.
  
 Copyright (c) 1988,1990,1992,1993,1995,1998,2003,2009,2011,
            Gaussian, Inc.  All Rights Reserved.
  
 This is part of the Gaussian(R) 09 program.  It is based on
 the Gaussian(R) 03 system (copyright 2003, Gaussian, Inc.),
 the Gaussian(R) 98 system (copyright 1998, Gaussian, Inc.),
 the Gaussian(R) 94 system (copyright 1995, Gaussian, Inc.),
 the Gaussian 92(TM) system (copyright 1992, Gaussian, Inc.),
 the Gaussian 90(TM) system (copyright 1990, Gaussian, Inc.),
 the Gaussian 88(TM) system (copyright 1988, Gaussian, Inc.),
 the Gaussian 86(TM) system (copyright 1986, Carnegie Mellon
 University), and the Gaussian 82(TM) system (copyright 1983,
 Carnegie Mellon University). Gaussian is a federally registered
 trademark of Gaussian, Inc.
  
 This software contains proprietary and confidential information,
 including trade secrets, belonging to Gaussian, Inc.
  
 This software is provided under written license and may be
 used, copied, transmitted, or stored only in accord with that
 written license.
  
 The following legend is applicable only to US Government
 contracts under FAR:
  
                    RESTRICTED RIGHTS LEGEND
  
 Use, reproduction and disclosure by the US Government is
 subject to restrictions as set forth in subparagraphs (a)
 and (c) of the Commercial Computer Software - Restricted
 Rights clause in FAR 52.227-19.
  
 Gaussian, Inc.
 340 Quinnipiac St., Bldg. 40, Wallingford CT 06492
  
  
 ---------------------------------------------------------------
 Warning -- This program may not be used in any manner that
 competes with the business of Gaussian, Inc. or will provide
 assistance to any competitor of Gaussian, Inc.  The licensee
 of this program is prohibited from giving any competitor of
 Gaussian, Inc. access to this program.  By using this program,
 the user acknowledges that Gaussian, Inc. is engaged in the
 business of creating and licensing software in the field of
 computational chemistry and represents and warrants to the
 licensee that it is not a competitor of Gaussian, Inc. and that
 it will not use this program in any manner prohibited above.
 ---------------------------------------------------------------
  

 Cite this work as:
 Gaussian 09, Revision C.01,
 M. J. Frisch, G. W. Trucks, H. B. Schlegel, G. E. Scuseria, 
 M. A. Robb, J. R. Cheeseman, G. Scalmani, V. Barone, B. Mennucci, 
 G. A. Petersson, H. Nakatsuji, M. Caricato, X. Li, H. P. Hratchian, 
 A. F. Izmaylov, J. Bloino, G. Zheng, J. L. Sonnenberg, M. Hada, 
 M. Ehara, K. Toyota, R. Fukuda, J. Hasegawa, M. Ishida, T. Nakajima, 
 Y. Honda, O. Kitao, H. Nakai, T. Vreven, J. A. Montgomery, Jr., 
 J. E. Peralta, F. Ogliaro, M. Bearpark, J. J. Heyd, E. Brothers, 
 K. N. Kudin, V. N. Staroverov, T. Keith, R. Kobayashi, J. Normand, 
 K. Raghavachari, A. Rendell, J. C. Burant, S. S. Iyengar, J. Tomasi, 
 M. Cossi, N. Rega, J. M. Millam, M. Klene, J. E. Knox, J. B. Cross, 
 V. Bakken, C. Adamo, J. Jaramillo, R. Gomperts, R. E. Stratmann, 
 O. Yazyev, A. J. Austin, R. Cammi, C. Pomelli, J. W. Ochterski, 
 R. L. Martin, K. Morokuma, V. G. Zakrzewski, G. A. Voth, 
 P. Salvador, J. J. Dannenberg, S. Dapprich, A. D. Daniels, 
 O. Farkas, J. B. Foresman, J. V. Ortiz, J. Cioslowski, 
 and D. J. Fox, Gaussian, Inc., Wallingford CT, 2010.
 
 ******************************************
 Gaussian 09:  AM64L-G09RevC.01 23-Sep-2011
                13-Dec-2013 
 ******************************************
 %mem=3700MB
 -------------------------------------------
 # SP 6-31g(d,p) bvwn SCF=(Tight) SCRF=COSMO
 -------------------------------------------
 1/38=1/1;
 2/12=2,17=6,18=5,40=1/2;
 3/5=1,6=6,7=101,11=2,16=1,25=1,30=1,70=22101,72=1,74=405/1,2,3;
 4//1;
 5/5=2,32=2,38=5/2;
 6/7=2,8=2,9=2,10=2,28=1/1;
 99/5=1,9=1/99;
 -----
 Title
 -----
 Charge =  0 Multiplicity = 1
 Symbolic Z-Matrix:
 6                    -1.2926   -0.26101   0. 
 6                     0.        0.58641   0. 
 1                    -2.18617   0.37452  -0.00019 
 1                    -1.34448  -0.90756   0.88498 
 1                    -1.34427  -0.90779  -0.88483 
 6                     1.2926   -0.26101  -0.00001 
 1                     0.00002   1.24762   0.87789 
 1                    -0.00001   1.24771  -0.87783 
 1                     1.34474  -0.90711   0.88529 
 1                     2.18617   0.37451  -0.00078 
 1                     1.34399  -0.90824  -0.88452 
 
                          Input orientation:                          
 ---------------------------------------------------------------------
 Center     Atomic      Atomic             Coordinates (Angstroms)
 Number     Number       Type             X           Y           Z
 ---------------------------------------------------------------------
      1          6           0       -1.292603   -0.261009    0.000001
      2          6           0        0.000003    0.586412    0.000000
      3          1           0       -2.186169    0.374517   -0.000185
      4          1           0       -1.344480   -0.907562    0.884983
      5          1           0       -1.344274   -0.907785   -0.884829
      6          6           0        1.292600   -0.261013   -0.000005
      7          1           0        0.000023    1.247621    0.877889
      8          1           0       -0.000008    1.247708   -0.877825
      9          1           0        1.344744   -0.907114    0.885294
     10          1           0        2.186167    0.374512   -0.000778
     11          1           0        1.343992   -0.908239   -0.884521
 ---------------------------------------------------------------------
                    Distance matrix (angstroms):
                    1          2          3          4          5
     1  C    0.000000
     2  C    1.545624   0.000000
     3  H    1.096519   2.196417   0.000000
     4  H    1.097231   2.196085   1.770788   0.000000
     5  H    1.097230   2.196048   1.770785   1.769812   0.000000
     6  C    2.585203   1.545618   3.536344   2.855770   2.855579
     7  H    2.171988   1.099039   2.512521   2.540187   3.091939
     8  H    2.172005   1.099040   2.512372   3.091971   2.540325
     9  H    2.856010   2.196063   3.859274   2.689224   3.219341
    10  H    3.536344   2.196410   4.372336   3.859243   3.858736
    11  H    2.855332   2.196057   3.858698   3.218544   2.688266
                    6          7          8          9         10
     6  C    0.000000
     7  H    2.171964   0.000000
     8  H    2.172013   1.755714   0.000000
     9  H    1.097233   2.539924   3.091958   0.000000
    10  H    1.096519   2.512688   2.512179   1.770786   0.000000
    11  H    1.097229   3.091937   2.540569   1.769816   1.770794
                   11
    11  H    0.000000
 Stoichiometry    C3H8
 Framework group  C1[X(C3H8)]
 Deg. of freedom    27
 Full point group                 C1      NOp   1
 Largest Abelian subgroup         C1      NOp   1
 Largest concise Abelian subgroup C1      NOp   1
                         Standard orientation:                         
 ---------------------------------------------------------------------
 Center     Atomic      Atomic             Coordinates (Angstroms)
 Number     Number       Type             X           Y           Z
 ---------------------------------------------------------------------
      1          6           0       -1.292603   -0.261009    0.000001
      2          6           0        0.000003    0.586412    0.000000
      3          1           0       -2.186169    0.374517   -0.000185
      4          1           0       -1.344480   -0.907562    0.884983
      5          1           0       -1.344274   -0.907785   -0.884829
      6          6           0        1.292600   -0.261013   -0.000005
      7          1           0        0.000023    1.247621    0.877889
      8          1           0       -0.000008    1.247708   -0.877825
      9          1           0        1.344744   -0.907114    0.885294
     10          1           0        2.186167    0.374512   -0.000778
     11          1           0        1.343992   -0.908239   -0.884521
 ---------------------------------------------------------------------
 Rotational constants (GHZ):     29.3653780      8.1870461      7.2696554
 Standard basis: 6-31G(d,p) (6D, 7F)
 There are    85 symmetry adapted basis functions of A   symmetry.
 Integral buffers will be    131072 words long.
 Raffenetti 2 integral format.
 Two-electron integral symmetry is turned on.
    85 basis functions,   140 primitive gaussians,    85 cartesian basis functions
    13 alpha electrons       13 beta electrons
       nuclear repulsion energy        81.7753814830 Hartrees.
 NAtoms=   11 NActive=   11 NUniq=   11 SFac= 1.00D+00 NAtFMM=   60 NAOKFM=F Big=F
 ------------------------------------------------------------------------------
 Polarizable Continuum Model (PCM)
 =================================
 Model                : C-PCM.
 Atomic radii         : Klamt.
 Polarization charges : Total charges.
 Charge compensation  : None.
 Solution method      : Matrix inversion.
 Cavity type          : Scaled VdW (van der Waals Surface) (Alpha=1.100).
 Cavity algorithm     : GePol (No added spheres)
                        Default sphere list used, NSphG=   11.
                        Lebedev-Laikov grids with approx.  5.0 points / Ang**2.
                        Smoothing algorithm: Karplus/York (Gamma=1.0000).
                        Polarization charges: spherical gaussians, with
                                              point-specific exponents (IZeta= 3).
                        Self-potential: point-specific (ISelfS= 7).
                        Self-field    : sphere-specific E.n sum rule (ISelfD= 2).
 Solvent              : Water, Eps=  78.355300 Eps(inf)=   1.777849
 ------------------------------------------------------------------------------
 Spheres list:
 ISph  on   Nord    Re0     Alpha      Xe            Ye            Ze
    1   C      1    2.000   1.000     -1.292603     -0.261009      0.000001
    2   C      2    2.000   1.000      0.000003      0.586412      0.000000
    3   H      3    1.300   1.000     -2.186169      0.374517     -0.000185
    4   H      4    1.300   1.000     -1.344480     -0.907562      0.884983
    5   H      5    1.300   1.000     -1.344274     -0.907785     -0.884829
    6   C      6    2.000   1.000      1.292600     -0.261013     -0.000005
    7   H      7    1.300   1.000      0.000023      1.247621      0.877889
    8   H      8    1.300   1.000     -0.000008      1.247708     -0.877825
    9   H      9    1.300   1.000      1.344744     -0.907114      0.885294
   10   H     10    1.300   1.000      2.186167      0.374512     -0.000778
   11   H     11    1.300   1.000      1.343992     -0.908239     -0.884521
 ------------------------------------------------------------------------------
 One-electron integrals computed using PRISM.
 NBasis=    85 RedAO= T  NBF=    85
 NBsUse=    85 1.00D-06 NBFU=    85
 Harris functional with IExCor=  405 diagonalized for initial guess.
 ExpMin= 1.61D-01 ExpMax= 3.05D+03 ExpMxC= 4.57D+02 IAcc=1 IRadAn=         1 AccDes= 0.00D+00
 HarFok:  IExCor=  405 AccDes= 0.00D+00 IRadAn=         1 IDoV= 1
 ScaDFX=  1.000000  1.000000  1.000000  1.000000
 FoFCou: FMM=F IPFlag=           0 FMFlag=      100000 FMFlg1=           0
         NFxFlg=           0 DoJE=T BraDBF=F KetDBF=T FulRan=T
         Omega=  0.000000  0.000000  1.000000  0.000000  0.000000 ICntrl=     500 IOpCl=  0
         NMat0=    1 NMatS0=    1 NMatT0=    0 NMatD0=    1 NMtDS0=    0 NMtDT0=    0
         I1Cent=           4 NGrid=           0.
 Petite list used in FoFCou.
 Initial guess orbital symmetries:
       Occupied  (A) (A) (A) (A) (A) (A) (A) (A) (A) (A) (A) (A)
                 (A)
       Virtual   (A) (A) (A) (A) (A) (A) (A) (A) (A) (A) (A) (A)
                 (A) (A) (A) (A) (A) (A) (A) (A) (A) (A) (A) (A)
                 (A) (A) (A) (A) (A) (A) (A) (A) (A) (A) (A) (A)
                 (A) (A) (A) (A) (A) (A) (A) (A) (A) (A) (A) (A)
                 (A) (A) (A) (A) (A) (A) (A) (A) (A) (A) (A) (A)
                 (A) (A) (A) (A) (A) (A) (A) (A) (A) (A) (A) (A)
 The electronic state of the initial guess is 1-A.
 Requested convergence on RMS density matrix=1.00D-08 within 128 cycles.
 Requested convergence on MAX density matrix=1.00D-06.
 Requested convergence on             energy=1.00D-06.
 No special actions if energy rises.
 Keep J ints in memory in canonical form, NReq=10452626.
 Error on total polarization charges =  0.02163
 SCF Done:  E(RB-VWN) =  -120.338537674     A.U. after    9 cycles
             Convg  =    0.1360D-08             -V/T =  2.0192

 **********************************************************************

            Population analysis using the SCF density.

 **********************************************************************

 Orbital symmetries:
       Occupied  (A) (A) (A) (A) (A) (A) (A) (A) (A) (A) (A) (A)
                 (A)
       Virtual   (A) (A) (A) (A) (A) (A) (A) (A) (A) (A) (A) (A)
                 (A) (A) (A) (A) (A) (A) (A) (A) (A) (A) (A) (A)
                 (A) (A) (A) (A) (A) (A) (A) (A) (A) (A) (A) (A)
                 (A) (A) (A) (A) (A) (A) (A) (A) (A) (A) (A) (A)
                 (A) (A) (A) (A) (A) (A) (A) (A) (A) (A) (A) (A)
                 (A) (A) (A) (A) (A) (A) (A) (A) (A) (A) (A) (A)
 The electronic state is 1-A.
 Alpha  occ. eigenvalues --   -9.97122  -9.96284  -9.96283  -0.71993  -0.63289
 Alpha  occ. eigenvalues --   -0.54568  -0.42395  -0.40510  -0.37225  -0.35785
 Alpha  occ. eigenvalues --   -0.31654  -0.31584  -0.30990
 Alpha virt. eigenvalues --    0.05231   0.09856   0.10040   0.10161   0.12014
 Alpha virt. eigenvalues --    0.14012   0.14213   0.14483   0.16690   0.20228
 Alpha virt. eigenvalues --    0.44370   0.45689   0.47885   0.49051   0.51169
 Alpha virt. eigenvalues --    0.57960   0.61364   0.63801   0.69543   0.77094
 Alpha virt. eigenvalues --    0.78063   0.78319   0.81348   0.81962   0.84597
 Alpha virt. eigenvalues --    0.85766   0.87243   0.97209   1.22388   1.22892
 Alpha virt. eigenvalues --    1.29023   1.44634   1.47696   1.57275   1.59989
 Alpha virt. eigenvalues --    1.72256   1.75681   1.80610   1.95432   1.95449
 Alpha virt. eigenvalues --    1.96808   1.98278   2.00455   2.01229   2.01344
 Alpha virt. eigenvalues --    2.14581   2.14815   2.19542   2.21467   2.32207
 Alpha virt. eigenvalues --    2.34918   2.40111   2.54380   2.58202   2.61357
 Alpha virt. eigenvalues --    2.63329   2.70284   2.76034   2.79337   2.79762
 Alpha virt. eigenvalues --    2.79813   3.03768   3.10599   3.19635   3.23011
 Alpha virt. eigenvalues --    3.31399   3.36665   3.38149   3.44417   4.17002
 Alpha virt. eigenvalues --    4.37040   4.51118
          Condensed to atoms (all electrons):
              1          2          3          4          5          6
     1  C    4.888132   0.382664   0.374803   0.382227   0.382224  -0.044121
     2  C    0.382664   4.796984  -0.026442  -0.033470  -0.033469   0.382665
     3  H    0.374803  -0.026442   0.629500  -0.032715  -0.032714   0.004177
     4  H    0.382227  -0.033470  -0.032715   0.625102  -0.034124  -0.004027
     5  H    0.382224  -0.033469  -0.032714  -0.034124   0.625098  -0.004038
     6  C   -0.044121   0.382665   0.004177  -0.004027  -0.004038   4.888131
     7  H   -0.037533   0.383127  -0.002917  -0.004822   0.005247  -0.037532
     8  H   -0.037530   0.383133  -0.002921   0.005246  -0.004817  -0.037532
     9  H   -0.004025  -0.033464  -0.000012   0.004363  -0.000380   0.382226
    10  H    0.004177  -0.026442  -0.000187  -0.000012  -0.000011   0.374803
    11  H   -0.004041  -0.033475  -0.000011  -0.000380   0.004371   0.382226
              7          8          9         10         11
     1  C   -0.037533  -0.037530  -0.004025   0.004177  -0.004041
     2  C    0.383127   0.383133  -0.033464  -0.026442  -0.033475
     3  H   -0.002917  -0.002921  -0.000012  -0.000187  -0.000011
     4  H   -0.004822   0.005246   0.004363  -0.000012  -0.000380
     5  H    0.005247  -0.004817  -0.000380  -0.000011   0.004371
     6  C   -0.037532  -0.037532   0.382226   0.374803   0.382226
     7  H    0.654475  -0.040772  -0.004829  -0.002911   0.005247
     8  H   -0.040772   0.654466   0.005247  -0.002928  -0.004811
     9  H   -0.004829   0.005247   0.625101  -0.032715  -0.034124
    10  H   -0.002911  -0.002928  -0.032715   0.629500  -0.032713
    11  H    0.005247  -0.004811  -0.034124  -0.032713   0.625100
 Mulliken atomic charges:
              1
     1  C   -0.286977
     2  C   -0.141811
     3  H    0.089439
     4  H    0.092612
     5  H    0.092613
     6  C   -0.286976
     7  H    0.083219
     8  H    0.083219
     9  H    0.092614
    10  H    0.089439
    11  H    0.092610
 Sum of Mulliken atomic charges =   0.00000
 Mulliken charges with hydrogens summed into heavy atoms:
              1
     1  C   -0.012314
     2  C    0.024627
     6  C   -0.012313
 Sum of Mulliken charges with hydrogens summed into heavy atoms =   0.00000
 Electronic spatial extent (au):  <R**2>=            229.9723
 Charge=              0.0000 electrons
 Dipole moment (field-independent basis, Debye):
    X=              0.0000    Y=              0.0542    Z=              0.0000  Tot=              0.0542
 Quadrupole moment (field-independent basis, Debye-Ang):
   XX=            -21.6247   YY=            -21.3158   ZZ=            -21.0253
   XY=              0.0000   XZ=              0.0000   YZ=             -0.0001
 Traceless Quadrupole moment (field-independent basis, Debye-Ang):
   XX=             -0.3028   YY=              0.0061   ZZ=              0.2966
   XY=              0.0000   XZ=              0.0000   YZ=             -0.0001
 Octapole moment (field-independent basis, Debye-Ang**2):
  XXX=             -0.0001  YYY=              0.1608  ZZZ=              0.0013  XYY=              0.0000
  XXY=              1.0868  XXZ=             -0.0003  XZZ=              0.0000  YZZ=             -0.4437
  YYZ=             -0.0008  XYZ=             -0.0003
 Hexadecapole moment (field-independent basis, Debye-Ang**3):
 XXXX=           -202.5023 YYYY=            -68.1868 ZZZZ=            -41.9998 XXXY=              0.0001
 XXXZ=             -0.0011 YYYX=              0.0001 YYYZ=              0.0010 ZZZX=              0.0014
 ZZZY=             -0.0006 XXYY=            -44.7571 XXZZ=            -41.3843 YYZZ=            -16.6696
 XXYZ=             -0.0018 YYXZ=             -0.0005 ZZXY=              0.0000
 N-N= 8.177538148303D+01 E-N=-4.385208451195D+02  KE= 1.180659120816D+02
 1\1\GINC-COMPUTE-0-2\SP\RBVWN\6-31G(d,p)\C3H8\BAERZ\13-Dec-2013\0\\# S
 P 6-31g(d,p) bvwn SCF=(Tight) SCRF=COSMO\\Title\\0,1\C,0,-1.292603,-0.
 261009,0.000001\C,0,0.000003,0.586412,0.\H,0,-2.186169,0.374517,-0.000
 185\H,0,-1.34448,-0.907562,0.884983\H,0,-1.344274,-0.907785,-0.884829\
 C,0,1.2926,-0.261013,-0.000005\H,0,0.000023,1.247621,0.877889\H,0,-0.0
 00008,1.247708,-0.877825\H,0,1.344744,-0.907114,0.885294\H,0,2.186167,
 0.374512,-0.000778\H,0,1.343992,-0.908239,-0.884521\\Version=AM64L-G09
 RevC.01\State=1-A\HF=-120.3385377\RMSD=1.360e-09\Dipole=0.0000003,0.02
 13286,0.0000104\Quadrupole=-0.2251066,0.0045698,0.2205368,0.0000214,0.
 0000228,-0.0000478\PG=C01 [X(C3H8)]\\@


 ON INDUCTION, OR "WHY DO YOU BELIEVE THE SUN WILL RISE TOMORROW?":

 ... THE FARMER WHO HAS FED THE CHICKEN EVERY DAY THROUGHOUT ITS
 LIFE AT LAST WRINGS ITS NECK INSTEAD, SHOWING THAT MORE REFINED VIEWS
 AS TO THE UNIFORMITY OF NATURE WOULD HAVE BEEN USEFUL TO THE CHICKEN.

                               -- BERTRAND RUSSELL
 Job cpu time:  0 days  0 hours  0 minutes 20.5 seconds.
 File lengths (MBytes):  RWF=     11 Int=      0 D2E=      0 Chk=      2 Scr=      1
 Normal termination of Gaussian 09 at Fri Dec 13 11:56:53 2013.
